ITEM: TIMESTEP
1999750
ITEM: NUMBER OF ATOMS
6000
ITEM: BOX BOUNDS pp pp pp
0 45.9528
0 45.9528
0 85.9528
ITEM: ATOMS id mol type q mass x y z fx fy fz 
1 1 1 -0.08 12.011 17.7398 44.6896 29.0548 0.83544 22.8755 5.74681 
2 1 3 0.06 1.008 18.0957 44.2581 29.9812 4.76142 -3.63702 2.16668 
3 1 3 0.06 1.008 18.6248 45.0094 28.441 -22.3238 -19.8206 2.10385 
4 1 3 0.06 1.008 16.971 43.9838 28.6476 19.0192 15.619 -4.99281 
5 1 2 0.46 12.011 17.1181 45.9782 29.4477 -26.1999 21.7009 4.55363 
6 1 4 -0.56 14.007 16.5995 1.05127 29.7603 22.6041 -38.2913 -9.62249 
7 2 1 -0.08 12.011 32.6924 31.6052 13.2213 -5.21671 -42.7537 20.3752 
8 2 3 0.06 1.008 32.7374 32.108 12.217 1.03444 -17.6782 18.0102 
9 2 3 0.06 1.008 32.076 32.1727 13.8942 -8.30692 8.40712 1.38066 
10 2 3 0.06 1.008 32.3228 30.5205 13.2789 3.97119 39.2383 -18.2667 
11 2 2 0.46 12.011 33.9848 31.4594 13.915 39.406 17.7908 -29.3776 
12 2 4 -0.56 14.007 35.0557 31.3649 14.401 -32.0533 -2.1905 8.49724 
13 3 1 -0.08 12.011 0.518144 28.763 16.9296 24.1876 -59.438 -8.88867 
14 3 3 0.06 1.008 1.13233 27.859 17.1103 -6.39701 12.5733 2.98505 
15 3 3 0.06 1.008 0.378083 28.7201 15.8522 -6.82243 3.57703 -0.34577 
16 3 3 0.06 1.008 45.5447 28.5957 17.4451 -9.78593 11.696 9.22353 
17 3 2 0.46 12.011 1.33233 29.9116 17.225 18.3217 84.4059 -16.5664 
18 3 4 -0.56 14.007 1.96701 30.9184 17.3828 -20.0143 -50.8169 15.123 
19 4 1 -0.08 12.011 18.9834 0.361509 24.5942 66.3773 -19.9789 13.5175 
20 4 3 0.06 1.008 19.9918 45.8188 24.2413 -45.6365 29.586 29.8874 
21 4 3 0.06 1.008 18.7563 0.219624 25.6924 10.2988 -0.705553 -26.857 
22 4 3 0.06 1.008 19.0457 1.42216 24.4027 -5.26885 5.93496 -8.02917 
23 4 2 0.46 12.011 18.0532 45.5638 23.8051 -42.1624 -38.1305 -16.8272 
24 4 4 -0.56 14.007 17.2922 44.893 23.194 10.6571 29.7216 6.69656 
25 5 1 -0.08 12.011 23.9626 24.4467 35.2737 32.2366 -14.7999 -1.45877 
26 5 3 0.06 1.008 22.9763 24.515 35.751 10.2136 3.21953 4.43186 
27 5 3 0.06 1.008 24.7898 25.0322 35.7108 -17.5389 0.671287 7.48289 
28 5 3 0.06 1.008 24.3368 23.409 35.3548 -10.0671 8.26788 -9.60476 
29 5 2 0.46 12.011 23.8597 24.9802 33.9121 -31.411 10.9177 15.6343 
30 5 4 -0.56 14.007 23.7042 25.4462 32.8689 17.3439 -9.49787 -16.6172 
31 6 1 -0.08 12.011 8.619 1.63032 36.5365 24.4309 -0.0577002 -50.9385 
32 6 3 0.06 1.008 9.40495 1.64931 35.7201 -12.7888 0.752864 30.075 
33 6 3 0.06 1.008 7.80742 2.16779 36.1168 -21.0801 6.41183 -1.59319 
34 6 3 0.06 1.008 8.38656 0.608982 36.7581 -8.71763 -12.351 -4.03086 
35 6 2 0.46 12.011 9.02475 2.19277 37.7833 32.5722 -6.87792 40.745 
36 6 4 -0.56 14.007 9.38899 2.58605 38.8207 -11.7377 13.2603 -13.37 
37 7 1 -0.08 12.011 36.0967 6.77867 20.928 -7.20441 -21.1842 -44.934 
38 7 3 0.06 1.008 36.6706 6.61697 21.8368 7.54323 17.4547 0.474327 
39 7 3 0.06 1.008 35.7338 7.81832 20.7398 2.41029 -17.1787 10.3809 
40 7 3 0.06 1.008 36.7385 6.43315 20.0371 -26.3709 18.189 36.2673 
41 7 2 0.46 12.011 35.0553 5.73423 21.1542 72.515 25.2972 7.7302 
42 7 4 -0.56 14.007 34.3689 4.87545 21.393 -53.0538 -19.0021 -6.00436 
43 8 1 -0.08 12.011 5.12517 44.0472 42.6236 -10.1538 -25.5795 -24.0264 
44 8 3 0.06 1.008 4.32588 43.2817 42.6418 9.33456 6.79421 -5.52761 
45 8 3 0.06 1.008 4.69261 44.9874 42.3999 -8.52713 19.3164 -1.81233 
46 8 3 0.06 1.008 5.55582 44.0521 43.5943 9.09935 3.94637 16.3005 
47 8 2 0.46 12.011 6.16625 43.7583 41.6117 30.0486 -14.4381 5.90655 
48 8 4 -0.56 14.007 7.03919 43.5076 40.8554 -30.6441 9.55133 8.83811 
49 9 1 -0.08 12.011 34.8143 31.9421 31.7326 -25.7854 3.73203 -16.6008 
50 9 3 0.06 1.008 35.5089 32.6737 32.1769 0.763538 -5.9694 -14.1837 
51 9 3 0.06 1.008 33.7827 32.2673 32.0059 15.021 -3.1891 -12.8366 
52 9 3 0.06 1.008 34.9266 31.6511 30.6567 0.510466 20.7925 16.1849 
53 9 2 0.46 12.011 34.9799 30.6839 32.397 9.70586 17.229 25.3342 
54 9 4 -0.56 14.007 35.1237 29.7208 32.9842 -3.21317 -34.2095 -0.865165 
55 10 1 -0.08 12.011 37.6954 7.12602 11.8909 13.1378 27.4694 26.1314 
56 10 3 0.06 1.008 37.8659 6.06206 12.157 -4.48038 12.8292 -11.9863 
57 10 3 0.06 1.008 38.1393 7.54851 11.0082 3.82638 -12.2451 -16.552 
58 10 3 0.06 1.008 36.7146 7.55631 12.0508 -13.1922 -16.434 -7.70163 
59 10 2 0.46 12.011 38.347 7.91913 12.9335 -22.9777 -39.1393 -13.6577 
60 10 4 -0.56 14.007 38.8203 8.50363 13.7698 27.8449 31.1936 24.1717 
61 11 1 -0.08 12.011 13.3114 20.9269 23.8438 33.2191 -21.3408 -3.61282 
62 11 3 0.06 1.008 13.4275 20.8285 22.7378 -6.56619 9.58567 16.6559 
63 11 3 0.06 1.008 13.71 21.8462 24.2915 -0.0499259 -0.115798 -13.4128 
64 11 3 0.06 1.008 12.3048 20.8494 24.2065 -13.1911 -4.29239 -4.92841 
65 11 2 0.46 12.011 14.1195 19.8347 24.4548 -8.99425 9.95057 27.9376 
66 11 4 -0.56 14.007 14.7407 19.01 25.0085 -4.71426 8.62324 -20.7723 
67 12 1 -0.08 12.011 42.9539 19.2359 17.4274 -18.4218 -9.55032 17.2911 
68 12 3 0.06 1.008 43.1362 19.5978 18.4685 -3.23259 -6.53821 -17.0797 
69 12 3 0.06 1.008 42.6299 18.196 17.464 -2.95103 0.821932 1.60167 
70 12 3 0.06 1.008 42.163 19.8435 16.9711 6.58689 -1.87183 -1.73201 
71 12 2 0.46 12.011 44.2041 19.2519 16.6971 -2.65489 26.9219 30.0159 
72 12 4 -0.56 14.007 45.2136 19.3302 16.1861 19.6898 -9.59512 -29.2502 
73 13 1 -0.08 12.011 0.87762 23.4764 8.15563 -3.01186 11.5074 10.3858 
74 13 3 0.06 1.008 1.66284 24.123 7.86298 14.9586 8.94676 -16.0576 
75 13 3 0.06 1.008 1.35816 22.6872 8.70755 0.0367305 -7.73022 6.78738 
76 13 3 0.06 1.008 0.309597 24.1223 8.84171 -9.46993 -12.046 -7.94103 
77 13 2 0.46 12.011 0.172452 22.8887 7.00378 11.7972 5.00927 36.6675 
78 13 4 -0.56 14.007 45.5822 22.3964 6.13783 -17.7831 -3.82169 -26.4616 
79 14 1 -0.08 12.011 32.4405 39.6335 44.7529 20.9758 -33.1078 12.8363 
80 14 3 0.06 1.008 31.723 39.4267 43.9973 -21.5608 12.7558 -7.83427 
81 14 3 0.06 1.008 32.0338 39.8213 45.76 -2.7162 0.352796 -10.9814 
82 14 3 0.06 1.008 32.8558 38.611 44.743 12.516 15.5512 7.55506 
83 14 2 0.46 12.011 33.3619 40.7043 44.3372 -31.837 2.87372 -1.21823 
84 14 4 -0.56 14.007 34.0225 41.5864 44.0109 23.6506 0.239673 -1.12637 
85 15 1 -0.08 12.011 6.48631 11.3618 37.1101 -3.1021 -29.6292 -32.1723 
86 15 3 0.06 1.008 6.12082 11.9436 37.9066 -5.4793 0.00472055 31.1988 
87 15 3 0.06 1.008 5.77298 10.5995 36.7475 5.83599 5.12326 11.5624 
88 15 3 0.06 1.008 6.43462 12.1163 36.3525 12.8979 3.48958 -12.4548 
89 15 2 0.46 12.011 7.84537 10.7737 37.2715 25.5255 23.4331 11.4709 
90 15 4 -0.56 14.007 8.94884 10.3678 37.4192 -34.2177 -2.86536 -7.54446 
91 16 1 -0.08 12.011 3.68333 10.9468 14.2556 29.6107 -11.6443 4.74789 
92 16 3 0.06 1.008 3.11991 10.0301 14.3848 0.313713 -3.58195 6.2308 
93 16 3 0.06 1.008 4.22129 10.8743 13.3206 -3.33851 -4.72951 -8.01309 
94 16 3 0.06 1.008 3.01042 11.7633 14.0999 -5.59844 15.6932 9.91524 
95 16 2 0.46 12.011 4.83286 11.1271 15.2014 -9.60453 15.0076 -18.6776 
96 16 4 -0.56 14.007 5.75321 11.2968 15.8976 -10.0089 -10.3147 4.42474 
97 17 1 -0.08 12.011 42.2394 16.2519 6.16396 -36.6974 -4.06297 -6.57999 
98 17 3 0.06 1.008 42.151 16.5826 5.14216 7.65078 -5.0106 -10.6952 
99 17 3 0.06 1.008 42.8625 15.4129 6.38176 14.0151 -10.7565 -6.92639 
100 17 3 0.06 1.008 42.5059 17.0669 6.75282 16.2617 24.5431 16.9033 
101 17 2 0.46 12.011 40.8947 15.9213 6.63473 -38.723 -19.9352 35.9747 
102 17 4 -0.56 14.007 39.8174 15.6367 7.06969 35.6961 14.5894 -27.9368 
103 18 1 -0.08 12.011 43.6575 28.6848 46.1454 24.7171 15.671 45.2047 
104 18 3 0.06 1.008 44.1701 29.5397 45.6693 -10.5191 -5.77721 2.36564 
105 18 3 0.06 1.008 44.3348 27.828 46.1279 -3.44218 0.293443 -1.77129 
106 18 3 0.06 1.008 43.4119 28.8977 47.231 8.63198 -1.65828 -29.1627 
107 18 2 0.46 12.011 42.4474 28.3052 45.4956 -25.6735 -15.1036 -23.2875 
108 18 4 -0.56 14.007 41.4733 27.9679 44.9613 -0.476456 4.98385 4.55464 
109 19 1 -0.08 12.011 21.6495 5.94112 37.8727 20.1359 -58.0316 72.7463 
110 19 3 0.06 1.008 21.3292 4.84468 37.8354 9.65059 36.1637 -17.5524 
111 19 3 0.06 1.008 21.0391 6.29151 38.7273 9.16624 8.2923 -12.8111 
112 19 3 0.06 1.008 22.7478 5.92831 38.1833 -34.4877 3.47129 -8.55441 
113 19 2 0.46 12.011 21.5313 6.76412 36.7169 2.89821 -10.7918 -8.56748 
114 19 4 -0.56 14.007 21.4656 7.39935 35.7805 -12.6896 20.437 -22.8867 
115 20 1 -0.08 12.011 20.9945 21.6413 15.7529 -23.3021 47.7354 64.3604 
116 20 3 0.06 1.008 20.7748 22.7099 15.5085 0.689461 -20.8238 -2.11512 
117 20 3 0.06 1.008 20.3329 21.4013 16.6233 7.09562 -4.41605 -22.7963 
118 20 3 0.06 1.008 20.8562 21.0417 14.8949 0.446352 -18.3932 -15.5549 
119 20 2 0.46 12.011 22.3424 21.6947 16.3167 24.4365 -4.98835 -48.5288 
120 20 4 -0.56 14.007 23.4489 21.7556 16.6568 -7.97801 1.61731 24.2351 
121 21 1 -0.08 12.011 32.7491 22.1656 26.087 21.8594 6.19241 40.818 
122 21 3 0.06 1.008 32.9775 22.6922 27.0655 -8.79471 -19.107 -23.3023 
123 21 3 0.06 1.008 33.0859 21.155 26.1196 10.2833 -13.348 4.15144 
124 21 3 0.06 1.008 31.7009 22.0694 25.9163 -15.7899 8.10156 -5.62242 
125 21 2 0.46 12.011 33.4887 22.8557 25.0503 -15.8553 12.8505 -13.8272 
126 21 4 -0.56 14.007 34.0399 23.4323 24.2154 10.3713 -1.88551 -2.54038 
127 22 1 -0.08 12.011 23.5001 10.8259 22.4438 -17.0793 21.6942 35.2755 
128 22 3 0.06 1.008 23.5503 11.902 22.2552 3.60065 -4.63794 -6.62096 
129 22 3 0.06 1.008 24.4776 10.3646 22.3311 -1.67655 -6.38643 -4.6746 
130 22 3 0.06 1.008 23.1529 10.783 23.5001 11.7884 -6.30232 -15.7989 
131 22 2 0.46 12.011 22.3764 10.2812 21.6959 -1.05717 -10.6507 -17.1394 
132 22 4 -0.56 14.007 21.4817 9.85219 21.0878 0.968065 -1.42632 3.73318 
133 23 1 -0.08 12.011 23.9146 45.0302 43.6518 -9.7337 7.38012 -13.5253 
134 23 3 0.06 1.008 23.9973 0.104043 43.3124 7.2308 2.21402 -1.30725 
135 23 3 0.06 1.008 24.359 44.3414 42.9449 2.27545 -1.74648 -4.16949 
136 23 3 0.06 1.008 24.3543 44.9101 44.5818 16.6796 -3.13499 32.0791 
137 23 2 0.46 12.011 22.4943 44.7765 43.7662 -31.7793 -9.82233 -29.5548 
138 23 4 -0.56 14.007 21.3394 44.5768 43.7766 14.6301 6.2948 15.956 
139 24 1 -0.08 12.011 10.747 14.6205 25.5683 30.266 -38.869 -4.46191 
140 24 3 0.06 1.008 10.0109 14.4319 24.8067 -5.07036 11.9218 -11.223 
141 24 3 0.06 1.008 11.1746 13.5687 25.6419 -3.88392 34.4376 6.02849 
142 24 3 0.06 1.008 11.5311 15.3572 25.2562 -16.9885 -11.4711 5.8517 
143 24 2 0.46 12.011 10.0211 14.9752 26.7845 -0.043614 0.213562 -21.0527 
144 24 4 -0.56 14.007 9.41701 15.253 27.7131 -2.25604 5.08966 18.9729 
145 25 1 -0.08 12.011 12.5389 42.1887 8.9827 28.5452 -28.7313 -40.2711 
146 25 3 0.06 1.008 12.7196 43.2553 8.92851 14.4468 0.821249 -10.842 
147 25 3 0.06 1.008 13.0868 41.7213 9.79272 1.39233 0.75449 4.20817 
148 25 3 0.06 1.008 11.5186 42.1979 9.16921 -32.6774 -5.94105 14.046 
149 25 2 0.46 12.011 12.6641 41.3398 7.72024 -26.5165 33.1336 22.2761 
150 25 4 -0.56 14.007 12.6836 40.7102 6.7373 18.0083 3.68945 10.3114 
151 26 1 -0.08 12.011 16.3488 8.52489 39.0997 21.7663 34.4168 -20.6008 
152 26 3 0.06 1.008 15.4896 8.25916 38.5084 -10.8295 -0.789164 -0.253575 
153 26 3 0.06 1.008 16.7439 9.51183 38.7736 -8.08196 -14.024 0.469921 
154 26 3 0.06 1.008 16.1504 8.63425 40.1411 -9.2632 -4.64861 15.6955 
155 26 2 0.46 12.011 17.3949 7.54517 38.8736 4.98751 -25.4081 10.651 
156 26 4 -0.56 14.007 18.2152 6.73281 38.7202 1.52967 9.90849 -5.5451 
157 27 1 -0.08 12.011 36.4461 36.0352 17.7766 87.1424 -6.55126 46.9759 
158 27 3 0.06 1.008 37.3149 36.2871 17.1264 -10.5241 -0.169388 14.9642 
159 27 3 0.06 1.008 35.756 36.8186 17.7363 -26.1397 17.6856 -4.39702 
160 27 3 0.06 1.008 36.1224 35.0999 17.4282 -20.5624 -19.4516 -10.283 
161 27 2 0.46 12.011 36.8907 35.8345 19.2305 -54.3957 9.72644 -48.412 
162 27 4 -0.56 14.007 37.1273 35.6796 20.3463 25.2643 1.33158 4.58265 
163 28 1 -0.08 12.011 36.2174 24.8171 16.7066 -14.3817 -1.27646 33.7524 
164 28 3 0.06 1.008 35.4907 24.0165 16.6617 3.2961 -8.40229 -11.5342 
165 28 3 0.06 1.008 36.8415 24.9412 15.8412 5.88785 -2.19907 -8.50117 
166 28 3 0.06 1.008 35.6049 25.6768 16.8788 -2.40758 15.4365 -3.93285 
167 28 2 0.46 12.011 36.9571 24.607 17.9615 19.3804 -9.34328 -0.424937 
168 28 4 -0.56 14.007 37.558 24.425 18.9473 -11.6523 6.59777 -7.38811 
169 29 1 -0.08 12.011 11.844 16.9083 84.2608 15.8331 -4.72469 32.4934 
170 29 3 0.06 1.008 11.0197 17.5543 84.5418 -5.79543 -5.51859 5.12556 
171 29 3 0.06 1.008 12.7328 17.5374 84.3004 -0.105944 0.88669 2.11202 
172 29 3 0.06 1.008 12.0537 16.0531 84.9459 -11.7827 11.4794 -11.6417 
173 29 2 0.46 12.011 11.733 16.5412 82.8809 12.0579 5.4259 -64.721 
174 29 4 -0.56 14.007 11.6866 16.2998 81.723 -9.55834 -6.40462 36.7939 
175 30 1 -0.08 12.011 34.2503 35.7559 6.82316 -18.4804 -32.4733 27.4569 
176 30 3 0.06 1.008 34.6245 36.7601 6.80084 -2.15645 10.3102 11.8108 
177 30 3 0.06 1.008 35.0854 35.076 6.85623 7.727 -3.54924 -1.52638 
178 30 3 0.06 1.008 33.5626 35.4308 7.684 22.9135 23.4558 -28.4491 
179 30 2 0.46 12.011 33.615 35.5983 5.53304 -4.55723 4.32786 -3.27298 
180 30 4 -0.56 14.007 33.1103 35.4998 4.50408 -6.8177 -8.21329 -10.3937 
181 31 1 -0.08 12.011 13.541 12.6167 16.7997 8.3082 -47.6466 -26.6716 
182 31 3 0.06 1.008 13.536 13.3213 17.6304 -2.60901 -0.327488 0.615222 
183 31 3 0.06 1.008 14.4783 12.6911 16.226 -2.8062 4.09354 11.3191 
184 31 3 0.06 1.008 13.4989 11.5356 17.1114 -4.3682 25.6179 -0.407344 
185 31 2 0.46 12.011 12.5269 12.8876 15.7582 -9.76473 39.2524 7.00042 
186 31 4 -0.56 14.007 11.7356 13.2039 14.9499 8.84265 -34.0319 10.5591 
187 32 1 -0.08 12.011 26.2742 32.2108 32.2699 3.55171 34.9578 28.9426 
188 32 3 0.06 1.008 27.2019 31.8505 32.865 -41.5957 14.0777 -19.9444 
189 32 3 0.06 1.008 25.5893 31.3907 32.0042 5.74305 5.04713 5.3441 
190 32 3 0.06 1.008 25.7348 33.0855 32.7661 16.893 -36.7254 -7.20957 
191 32 2 0.46 12.011 26.7692 32.8505 31.0509 55.6421 -30.5028 -40.7666 
192 32 4 -0.56 14.007 27.2708 33.2692 30.0555 -40.6901 -1.12306 28.7585 
193 33 1 -0.08 12.011 8.43003 13.0514 29.7925 -10.1951 -21.8878 -0.0684234 
194 33 3 0.06 1.008 9.0747 12.4933 29.0855 -2.48097 6.71971 14.145 
195 33 3 0.06 1.008 8.64677 12.9248 30.8357 7.94584 -13.1591 7.75279 
196 33 3 0.06 1.008 8.53236 14.0908 29.6685 -0.453094 21.9148 -8.60718 
197 33 2 0.46 12.011 7.03415 12.6443 29.5791 -3.90411 6.27434 -17.1201 
198 33 4 -0.56 14.007 5.93453 12.3313 29.3664 7.31075 -4.47732 12.0628 
199 34 1 -0.08 12.011 16.5396 3.16376 13.5361 -54.6096 51.0969 -14.9853 
200 34 3 0.06 1.008 15.4989 3.48956 13.1493 40.2891 -22.8988 10.6384 
201 34 3 0.06 1.008 17.2901 3.31983 12.7781 4.6823 1.77917 -6.47734 
202 34 3 0.06 1.008 16.7061 3.86866 14.3603 6.65297 -8.03836 -1.54384 
203 34 2 0.46 12.011 16.6103 1.80514 13.9942 12.2943 -12.9687 13.2332 
204 34 4 -0.56 14.007 16.7043 0.725582 14.3899 -13.0532 -6.64425 -4.55205 
205 35 1 -0.08 12.011 38.4085 45.7656 17.1975 25.9724 32.4343 -27.0249 
206 35 3 0.06 1.008 37.5343 45.1642 17.1134 -15.2911 -8.46244 5.05954 
207 35 3 0.06 1.008 39.0643 45.4362 18.0361 -9.23677 3.25103 -14.1055 
208 35 3 0.06 1.008 38.915 45.6964 16.2127 0.000291377 -3.26309 18.2267 
209 35 2 0.46 12.011 38.0618 1.26016 17.3398 -15.5733 13.9608 52.7883 
210 35 4 -0.56 14.007 37.765 2.39614 17.5582 13.4231 -35.0896 -33.6189 
211 36 1 -0.08 12.011 13.9664 25.9549 29.6865 9.57742 -6.41952 -79.5223 
212 36 3 0.06 1.008 14.8754 25.4779 29.1958 -23.2973 17.0105 15.2869 
213 36 3 0.06 1.008 14.3073 26.6254 30.4973 -7.61094 -6.12407 -7.14178 
214 36 3 0.06 1.008 13.38 26.5211 28.8193 32.3754 -28.338 53.5812 
215 36 2 0.46 12.011 13.1621 24.8101 30.1584 -26.8403 39.2001 36.2791 
216 36 4 -0.56 14.007 12.4651 23.9984 30.6122 19.0716 -17.7986 -18.671 
217 37 1 -0.08 12.011 6.09415 27.2677 14.4205 -14.4185 -31.9371 -13.1306 
218 37 3 0.06 1.008 6.71631 26.4274 14.7821 -8.81267 9.34249 1.73495 
219 37 3 0.06 1.008 5.9678 27.0853 13.3534 1.60433 6.87132 -1.01621 
220 37 3 0.06 1.008 5.08938 27.2463 14.8639 8.06092 -1.40534 1.63464 
221 37 2 0.46 12.011 6.76491 28.5139 14.6905 17.2325 7.32312 19.8525 
222 37 4 -0.56 14.007 7.33388 29.4877 14.9512 -0.457037 8.12734 -8.85724 
223 38 1 -0.08 12.011 5.83067 21.6602 48.2247 -10.8195 -5.78407 -17.5232 
224 38 3 0.06 1.008 6.80838 21.7858 48.6891 -2.86915 -6.24468 8.007 
225 38 3 0.06 1.008 5.62748 20.6734 47.8253 16.7023 -8.15706 -0.494564 
226 38 3 0.06 1.008 4.95426 21.7315 48.8525 2.52782 16.3701 12.1797 
227 38 2 0.46 12.011 5.77091 22.524 47.0459 -9.78725 24.0713 -43.5035 
228 38 4 -0.56 14.007 5.70981 23.2076 46.0698 5.24815 -20.1107 41.4021 
229 39 1 -0.08 12.011 37.6889 30.7627 6.90591 38.3775 12.3369 53.091 
230 39 3 0.06 1.008 38.5132 30.4655 7.64023 -22.264 8.25853 -28.3146 
231 39 3 0.06 1.008 37.4396 31.824 7.15716 -1.32288 -19.2308 -8.23764 
232 39 3 0.06 1.008 38.0121 30.6647 5.88944 6.75123 0.926118 -10.903 
233 39 2 0.46 12.011 36.5972 29.8419 7.1387 -40.0429 -9.34546 -13.3446 
234 39 4 -0.56 14.007 35.6839 29.1193 7.28383 18.2307 7.38507 7.32069 
235 40 1 -0.08 12.011 28.3859 24.08 85.4626 -93.9408 -29.6582 46.0392 
236 40 3 0.06 1.008 27.3322 24.0866 84.9686 45.8665 8.56708 21.7541 
237 40 3 0.06 1.008 28.2517 23.8443 0.599658 0.98409 8.75731 -21.235 
238 40 3 0.06 1.008 28.8528 23.2135 85.0745 21.8413 -8.25731 -12.9105 
239 40 2 0.46 12.011 29.0784 25.3224 85.3662 45.4642 34.9568 -62.3386 
240 40 4 -0.56 14.007 29.6827 26.3103 85.1521 -18.6405 -10.9605 30.0031 
241 41 1 -0.08 12.011 0.824268 9.10972 26.2761 -1.89105 -32.1592 -4.57016 
242 41 3 0.06 1.008 1.69747 8.50849 26.0776 7.379 1.09213 -1.97969 
243 41 3 0.06 1.008 0.197379 9.09178 25.397 -0.177948 6.14232 -5.48222 
244 41 3 0.06 1.008 0.273945 8.59901 27.0573 -1.63123 2.21725 6.03411 
245 41 2 0.46 12.011 1.16072 10.4496 26.6703 -17.405 16.9068 4.4435 
246 41 4 -0.56 14.007 1.38032 11.5323 26.9891 16.8633 9.4492 3.49461 
247 42 1 -0.08 12.011 14.3404 25.9264 36.0505 16.6719 29.7658 -4.45146 
248 42 3 0.06 1.008 15.2136 26.0893 36.7466 -23.1451 0.233554 -13.755 
249 42 3 0.06 1.008 14.743 25.3206 35.2566 -2.42024 -7.48496 -4.77504 
250 42 3 0.06 1.008 13.5479 25.42 36.5797 -6.81785 -2.74719 0.886024 
251 42 2 0.46 12.011 13.8926 27.2237 35.4284 38.2251 -38.3855 44.3303 
252 42 4 -0.56 14.007 13.6092 28.2356 35.0025 -21.4331 21.2426 -21.5792 
253 43 1 -0.08 12.011 39.1472 42.9869 9.94242 7.75416 -26.4379 -26.9318 
254 43 3 0.06 1.008 38.7605 43.4375 9.03074 -4.314 -4.46195 -1.44774 
255 43 3 0.06 1.008 39.0945 43.7751 10.6571 0.522521 5.01149 18.7626 
256 43 3 0.06 1.008 38.5652 42.0981 10.1946 -1.06907 3.90199 3.81127 
257 43 2 0.46 12.011 40.5454 42.6074 9.63591 12.2826 39.726 6.92576 
258 43 4 -0.56 14.007 41.6737 42.4168 9.39534 -16.5924 -20.3757 0.983431 
259 44 1 -0.08 12.011 39.4706 43.2352 3.73915 -42.9184 -42.3907 18.0531 
260 44 3 0.06 1.008 39.2558 44.1915 3.37413 -8.03201 27.409 -8.32662 
261 44 3 0.06 1.008 38.8907 42.4911 3.1258 14.606 14.986 12.4914 
262 44 3 0.06 1.008 40.5208 43.087 3.6121 14.1822 -5.43094 1.68244 
263 44 2 0.46 12.011 39.0381 43.1203 5.17739 33.9869 12.1718 -10.5648 
264 44 4 -0.56 14.007 38.7665 43.0556 6.31014 -11.7359 -6.71533 -14.0655 
265 45 1 -0.08 12.011 31.3322 42.5195 23.5794 -4.51104 -24.5962 42.5353 
266 45 3 0.06 1.008 31.1039 42.9378 22.6371 3.14365 17.1421 -17.3208 
267 45 3 0.06 1.008 30.4692 42.6925 24.2868 22.017 -5.81089 -15.0843 
268 45 3 0.06 1.008 31.5144 41.4301 23.4154 -15.136 16.1105 1.77339 
269 45 2 0.46 12.011 32.6298 42.8742 24.1963 -12.4246 -21.4894 -19.207 
270 45 4 -0.56 14.007 33.6603 43.0811 24.6592 8.16804 14.2418 9.24197 
271 46 1 -0.08 12.011 30.2383 24.6024 5.1606 8.98848 12.1307 -12.6903 
272 46 3 0.06 1.008 29.2361 24.4102 5.57213 8.45997 -8.65211 -4.4164 
273 46 3 0.06 1.008 30.6418 25.4261 5.81728 -6.02707 -17.7586 -20.8833 
274 46 3 0.06 1.008 30.9397 23.7277 5.19028 -20.2601 14.2713 3.17442 
275 46 2 0.46 12.011 30.0857 25.0492 3.72593 7.36289 4.96507 57.257 
276 46 4 -0.56 14.007 29.9755 25.432 2.65422 -3.93452 -7.72899 -23.26 
277 47 1 -0.08 12.011 43.999 23.7173 25.0159 0.463536 22.0781 -46.8374 
278 47 3 0.06 1.008 44.3003 22.7823 25.433 -0.557076 -11.7747 8.9903 
279 47 3 0.06 1.008 44.5604 24.5575 25.4665 -2.58082 -10.3977 -7.00641 
280 47 3 0.06 1.008 44.1782 23.6158 23.9061 0.27056 9.52522 27.0545 
281 47 2 0.46 12.011 42.5606 23.9852 25.1371 40.8798 -21.9687 19.7014 
282 47 4 -0.56 14.007 41.4556 24.1618 25.2692 -39.971 16.146 -5.81336 
283 48 1 -0.08 12.011 41.4392 45.2026 8.00333 -27.1035 -14.6036 -5.64707 
284 48 3 0.06 1.008 41.6377 0.110835 7.39223 -1.30666 4.20843 -12.9184 
285 48 3 0.06 1.008 40.6338 44.5692 7.57573 9.03142 13.6623 1.1971 
286 48 3 0.06 1.008 42.3411 44.5772 7.95264 -1.9187 7.07375 19.7865 
287 48 2 0.46 12.011 40.9001 45.7985 9.25372 25.6562 10.9966 2.69387 
288 48 4 -0.56 14.007 40.5126 0.356675 10.2297 -4.1745 -18.2907 -7.66511 
289 49 1 -0.08 12.011 31.3352 41.1957 35.2645 -3.50874 19.0645 -4.78508 
290 49 3 0.06 1.008 30.9116 42.1614 35.6014 7.98774 -8.66758 -4.4326 
291 49 3 0.06 1.008 31.9334 41.3658 34.3419 -10.6666 -6.06145 12.3086 
292 49 3 0.06 1.008 31.9572 40.8241 36.0599 5.85321 -6.23325 5.27986 
293 49 2 0.46 12.011 30.1746 40.3256 35.0476 9.69648 17.6365 -6.88572 
294 49 4 -0.56 14.007 29.2503 39.679 34.852 -8.61327 -15.5628 0.262422 
295 50 1 -0.08 12.011 12.2584 11.9189 28.9735 5.58638 -36.622 18.094 
296 50 3 0.06 1.008 11.3693 12.4689 29.2422 -3.97208 6.94664 -3.30924 
297 50 3 0.06 1.008 12.1406 11.3694 28.0259 3.45985 11.0004 2.93935 
298 50 3 0.06 1.008 13.1644 12.5456 29.044 -9.32348 -1.92357 -9.27588 
299 50 2 0.46 12.011 12.4368 10.8771 30.0287 15.0589 53.9191 -25.1542 
300 50 4 -0.56 14.007 12.6224 10.1313 30.8608 -8.75053 -34.0523 20.2141 
301 51 1 -0.08 12.011 1.15362 20.365 13.4464 -0.279648 -11.1562 45.5654 
302 51 3 0.06 1.008 2.14757 19.9332 13.408 0.634497 -7.03149 1.44662 
303 51 3 0.06 1.008 0.353189 19.6431 13.2589 6.97166 -4.91217 4.65048 
304 51 3 0.06 1.008 46.9346 20.8404 14.4521 4.17318 -7.59825 -22.9588 
305 51 2 0.46 12.011 1.0496 21.295 12.3854 -31.0448 56.8135 -61.3031 
306 51 4 -0.56 14.007 0.906145 22.0694 11.4871 18.7699 -27.7558 32.5683 
307 52 1 -0.08 12.011 4.03764 15.8147 38.0734 2.67219 -21.3192 48.4236 
308 52 3 0.06 1.008 4.17732 14.7921 38.4343 -6.401 0.791047 -2.47373 
309 52 3 0.06 1.008 4.72677 16.3617 38.665 9.1314 18.6625 7.55188 
310 52 3 0.06 1.008 4.32842 15.8108 37.0848 7.00212 6.0171 -39.9485 
311 52 2 0.46 12.011 2.65666 16.2253 38.2923 22.4444 -25.6702 -34.0975 
312 52 4 -0.56 14.007 1.56548 16.4949 38.3904 -35.2802 22.4431 20.2153 
313 53 1 -0.08 12.011 26.3945 7.75296 20.7017 10.8243 12.1885 -5.4072 
314 53 3 0.06 1.008 25.7363 8.43013 20.1992 -13.0839 0.920462 -8.78452 
315 53 3 0.06 1.008 26.6231 6.88319 20.1099 -3.28112 -7.12622 -6.54239 
316 53 3 0.06 1.008 27.3197 8.35462 20.7654 -7.86205 -10.6111 12.1401 
317 53 2 0.46 12.011 25.7988 7.37036 21.9839 23.8141 8.83223 24.236 
318 53 4 -0.56 14.007 25.3868 7.09285 23.0376 -10.6411 -4.22547 -14.3573 
319 54 1 -0.08 12.011 45.739 13.1151 29.3443 25.2536 6.17829 28.3511 
320 54 3 0.06 1.008 45.2646 13.3242 28.405 -10.5049 -1.79469 -7.91656 
321 54 3 0.06 1.008 45.3297 12.2745 29.911 -0.198885 -2.97016 -9.74597 
322 54 3 0.06 1.008 0.884255 13.0118 29.1649 -23.8894 -8.59618 1.32729 
323 54 2 0.46 12.011 45.6725 14.28 30.2415 18.724 22.1073 -22.7754 
324 54 4 -0.56 14.007 45.6767 15.2359 30.9081 -15.2355 -12.7061 4.98537 
325 55 1 -0.08 12.011 37.8343 19.0065 5.47203 -6.5614 -1.45966 -90.0128 
326 55 3 0.06 1.008 38.6327 18.4504 5.84562 17.1639 -22.5049 7.95848 
327 55 3 0.06 1.008 38.2421 19.9427 5.18209 12.3788 12.4685 -13.1753 
328 55 3 0.06 1.008 37.3841 18.5045 4.4907 14.9799 27.6983 62.4411 
329 55 2 0.46 12.011 37.0065 19.4619 6.52638 -24.3159 -53.5547 -8.75546 
330 55 4 -0.56 14.007 36.3084 19.7218 7.36463 -20.0647 35.1098 36.4232 
331 56 1 -0.08 12.011 28.6808 17.6677 9.63759 22.6242 -21.3288 4.63669 
332 56 3 0.06 1.008 27.6921 17.3394 9.43306 -15.6281 -8.61927 -7.46387 
333 56 3 0.06 1.008 29.3653 17.5993 8.75638 -13.0041 1.25463 14.1708 
334 56 3 0.06 1.008 28.6137 18.6592 9.99692 -0.405811 24.5009 -0.709018 
335 56 2 0.46 12.011 29.23 16.9381 10.8004 11.6408 29.4025 -33.9891 
336 56 4 -0.56 14.007 29.7026 16.4162 11.6899 -4.50426 -19.707 25.6411 
337 57 1 -0.08 12.011 25.1185 37.7692 7.27995 54.7554 35.2913 30.0296 
338 57 3 0.06 1.008 25.2734 37.6896 8.36938 4.8052 -6.72106 -10.398 
339 57 3 0.06 1.008 25.5019 36.8989 6.73707 -11.8702 0.123479 -0.307228 
340 57 3 0.06 1.008 24.1108 38.0586 7.21074 -28.9847 -8.88744 -15.1301 
341 57 2 0.46 12.011 25.8484 39.0035 6.85024 -33.3286 -12.7573 -16.8144 
342 57 4 -0.56 14.007 26.3501 39.9779 6.46453 15.1334 -4.44134 11.9731 
343 58 1 -0.08 12.011 12.5813 24.1739 12.2257 -14.564 -18.6679 3.58279 
344 58 3 0.06 1.008 12.2904 24.8825 11.4249 9.93653 -4.14406 10.6035 
345 58 3 0.06 1.008 11.9486 23.2739 12.1266 12.0141 4.46544 -8.44892 
346 58 3 0.06 1.008 13.6487 23.8945 12.294 -9.11812 4.80458 -10.7063 
347 58 2 0.46 12.011 12.1854 24.59 13.5665 22.2292 -7.26532 -50.9734 
348 58 4 -0.56 14.007 11.9006 24.907 14.592 -20.2623 20.306 56.9375 
349 59 1 -0.08 12.011 29.659 15.5747 42.3336 -9.20184 -33.2292 41.3842 
350 59 3 0.06 1.008 29.6686 16.595 42.0438 7.00441 19.1699 -2.18443 
351 59 3 0.06 1.008 29.3944 14.9955 41.4722 3.10886 -9.79113 -9.99788 
352 59 3 0.06 1.008 30.592 15.2181 42.8329 -10.8798 10.7425 -14.6678 
353 59 2 0.46 12.011 28.5727 15.3803 43.3362 8.43875 26.5861 -16.7176 
354 59 4 -0.56 14.007 27.7125 15.289 44.1054 3.23258 -11.6637 -2.68939 
355 60 1 -0.08 12.011 15.3771 42.5289 4.92626 -23.666 -5.37827 27.7013 
356 60 3 0.06 1.008 15.6911 43.1023 4.11116 10.8706 33.2058 -11.3312 
357 60 3 0.06 1.008 14.3243 42.3104 4.79558 -0.750756 -12.3255 -10.1057 
358 60 3 0.06 1.008 16.0242 41.6986 4.94438 6.20977 -26.9793 -4.31273 
359 60 2 0.46 12.011 15.3663 42.9803 6.32157 4.47629 -6.68347 -33.8306 
360 60 4 -0.56 14.007 15.3487 43.2968 7.40784 1.58332 16.0841 30.8109 
361 61 1 -0.08 12.011 44.5181 31.6201 12.6836 15.1415 12.8519 -22.2232 
362 61 3 0.06 1.008 43.896 30.8452 12.4031 -27.7957 -27.6751 -2.49356 
363 61 3 0.06 1.008 45.1206 31.7719 11.8152 8.60349 2.31492 -12.685 
364 61 3 0.06 1.008 44.0221 32.5606 12.7916 -8.89455 9.31626 13.2889 
365 61 2 0.46 12.011 45.4726 31.238 13.6867 5.87803 14.1345 4.91376 
366 61 4 -0.56 14.007 0.299408 30.9711 14.4784 6.66089 -11.7989 16.4474 
367 62 1 -0.08 12.011 21.0152 15.371 26.0042 12.7415 26.1185 -11.8015 
368 62 3 0.06 1.008 20.2882 16.195 25.8567 8.32889 -15.4783 -1.00455 
369 62 3 0.06 1.008 21.9633 15.8701 26.3358 -16.9413 -16.1046 -0.783563 
370 62 3 0.06 1.008 20.6324 14.6338 26.6875 -0.99397 -1.68024 12.8933 
371 62 2 0.46 12.011 21.2789 14.6579 24.7452 7.75124 -4.23922 -6.58029 
372 62 4 -0.56 14.007 21.5037 14.0986 23.7448 -7.00822 6.05504 6.94325 
373 63 1 -0.08 12.011 41.9588 16.4516 28.8271 -36.8059 -11.9082 -14.8755 
374 63 3 0.06 1.008 41.5194 15.4982 29.1758 8.88949 5.96238 -8.7575 
375 63 3 0.06 1.008 41.0849 17.1119 28.6856 10.4414 -2.55306 1.44834 
376 63 3 0.06 1.008 42.5309 16.8216 29.625 22.5069 12.3682 14.6646 
377 63 2 0.46 12.011 42.6466 16.3226 27.523 -13.8088 -7.07706 4.54916 
378 63 4 -0.56 14.007 43.1497 16.2059 26.4846 7.35366 4.34193 4.45313 
379 64 1 -0.08 12.011 21.6553 28.0374 32.8211 12.3454 5.31623 -9.85699 
380 64 3 0.06 1.008 22.6562 27.8249 33.2125 -6.09679 -16.1217 -5.8921 
381 64 3 0.06 1.008 21.0088 28.0163 33.6664 -11.3965 12.7384 13.0556 
382 64 3 0.06 1.008 21.8591 28.9915 32.3731 -14.1504 10.3973 -0.250519 
383 64 2 0.46 12.011 21.0624 27.1037 31.8499 50.096 -6.6416 42.9097 
384 64 4 -0.56 14.007 20.66 26.314 31.1477 -27.2133 -8.44866 -34.6734 
385 65 1 -0.08 12.011 10.9076 0.214402 32.3467 14.8964 6.25449 -13.3201 
386 65 3 0.06 1.008 11.4489 45.2188 32.2753 -2.10904 1.39151 15.2219 
387 65 3 0.06 1.008 11.5692 1.02935 32.6537 -2.69345 -1.36142 -2.4202 
388 65 3 0.06 1.008 10.591 46.265 31.3319 -2.27983 13.2774 -13.3528 
389 65 2 0.46 12.011 9.68653 0.194507 33.126 -4.62604 -36.8057 15.7659 
390 65 4 -0.56 14.007 8.717 0.0989074 33.7525 -3.98113 16.8524 -2.57253 
391 66 1 -0.08 12.011 19.473 4.58382 9.88331 31.8434 -13.3852 32.3719 
392 66 3 0.06 1.008 18.7159 3.96235 10.3701 -1.81452 5.28089 -1.31143 
393 66 3 0.06 1.008 19.1434 4.89943 8.93302 -4.49897 3.4134 -23.6197 
394 66 3 0.06 1.008 19.7076 5.46395 10.4992 -6.27116 -4.69916 -2.95393 
395 66 2 0.46 12.011 20.7199 3.76052 9.86588 -26.2734 4.19166 3.74875 
396 66 4 -0.56 14.007 21.6712 3.10618 9.87166 9.24363 2.01981 -6.69857 
397 67 1 -0.08 12.011 17.5519 25.4918 83.9382 -16.88 -19.7298 3.9267 
398 67 3 0.06 1.008 18.0163 25.6747 82.9947 6.85684 -10.3947 -15.4404 
399 67 3 0.06 1.008 18.0557 24.7982 84.6069 15.6623 4.18272 -5.51696 
400 67 3 0.06 1.008 17.4872 26.4654 84.4003 -3.07379 3.68944 8.04613 
401 67 2 0.46 12.011 16.2151 24.8651 83.8808 -10.511 38.5614 28.2083 
402 67 4 -0.56 14.007 15.1318 24.4518 83.9378 9.15003 -16.56 -23.7546 
403 68 1 -0.08 12.011 24.5955 35.9988 40.0758 -15.1887 5.62821 -36.0113 
404 68 3 0.06 1.008 23.6946 36.3512 39.5123 22.3113 -4.56229 4.05928 
405 68 3 0.06 1.008 24.2444 35.8805 41.0714 6.88909 9.02552 23.2385 
406 68 3 0.06 1.008 24.822 34.9896 39.7765 -0.4382 -5.23376 -6.66312 
407 68 2 0.46 12.011 25.8191 36.8088 39.8171 -20.1982 -10.4527 25.2323 
408 68 4 -0.56 14.007 26.7774 37.4293 39.6531 0.636384 3.8326 -7.81477 
409 69 1 -0.08 12.011 35.5755 43.3426 21.739 -31.1751 8.79343 7.42231 
410 69 3 0.06 1.008 36.5988 43.3437 22.0411 19.0922 7.60668 -10.6666 
411 69 3 0.06 1.008 35.2149 42.3432 21.6408 -1.73056 -15.4929 -1.57109 
412 69 3 0.06 1.008 35.038 43.7789 22.5574 -3.01187 1.45024 11.9761 
413 69 2 0.46 12.011 35.0592 44.1301 20.6112 27.4432 -14.1253 4.87478 
414 69 4 -0.56 14.007 34.6689 44.7296 19.7193 -11.2888 13.2072 -13.1949 
415 70 1 -0.08 12.011 4.23882 13.9022 26.9373 10.5817 -29.5236 -10.4636 
416 70 3 0.06 1.008 3.53924 13.7195 26.0933 10.5194 -5.12529 12.1468 
417 70 3 0.06 1.008 4.86644 13.0468 27.2412 -16.2849 -1.63071 -15.3837 
418 70 3 0.06 1.008 5.01827 14.5531 26.5969 -0.627771 23.3053 4.43175 
419 70 2 0.46 12.011 3.50433 14.1899 28.1583 -17.2182 17.2371 19.8492 
420 70 4 -0.56 14.007 2.8989 14.4151 29.1389 11.865 2.69892 -13.7113 
421 71 1 -0.08 12.011 42.5555 11.0344 42.2344 41.0713 29.7422 5.89081 
422 71 3 0.06 1.008 42.3536 10.9532 43.3093 -2.29976 -8.97134 -6.2644 