ITEM: TIMESTEP
0
ITEM: NUMBER OF ATOMS
2000
ITEM: BOX BOUNDS pp pp pp
-1.96735084057 43.9854507446
-1.68467032909 44.2681312561
-1.75188553333 84.2009124756
ITEM: ATOMS id type xu yu zu
1 1   16.742   46.715   29.672
2 1   17.337   45.539   29.328
3 1   34.760   31.395   14.254
4 1   33.533   31.499   13.694
5 1    1.786   30.649   17.326
6 1    1.061   29.484   17.106
7 1   17.504   -0.882   23.369
8 1   18.394   45.815   24.079
9 1   23.736   25.321   33.170
10 1   23.909   24.794   34.388
11 1    9.293    2.467   38.535
12 1    8.886    1.991   37.338
13 1   34.585    5.113   21.335
14 1   35.428    6.078   21.075
15 1    6.800   43.575   41.076
16 1    5.798   43.856   41.968
17 1   35.085   29.998   32.828
18 1   34.912   31.110   32.177
19 1   38.680    8.331   13.535
20 1   38.129    7.676   12.597
21 1   14.562   19.250   24.863
22 1   13.846   20.212   24.255
23 1   44.931   19.318   16.341
24 1   43.765   19.241   16.961
25 1   -0.215   22.531    6.390
26 1    0.436   23.101    7.416
27 1   33.825   41.342   44.104
28 1   33.036   40.305   44.477
29 1    8.641   10.492   37.381
30 1    7.357   10.993   37.196
31 1    5.494   11.253   15.692
32 1    4.444   11.060   14.845
33 1   40.120   15.714    6.956
34 1   41.348   16.043    6.482
35 1   41.746   28.058   45.109
36 1   42.876   28.432   45.734
37 1   21.489    7.217   36.042
38 1   21.580    6.462   37.148
39 1   23.142   21.741   16.544
40 1   21.868   21.701   16.136
41 1   33.879   23.274   24.449
42 1   33.235   22.607   25.421
43 1   21.734    9.974   21.257
44 1   22.756   10.488   21.977
45 1   21.661   44.633   43.761
46 1   22.984   -1.085   43.723
47 1    9.583   15.174   27.445
48 1   10.270   14.828   26.349
49 1   12.666   40.895    7.018
50 1   12.602   41.636    8.164
51 1   17.982    6.957   38.768
52 1   17.039    7.899   38.949
53 1   37.042   35.724   20.025
54 1   36.752   35.900   18.724
55 1   37.390   24.474   18.667
56 1   36.682   24.683   17.539
57 1   11.706   16.376   82.040
58 1   11.790   16.684   83.363
59 1   33.253   35.532    4.794
60 1   33.843   35.643    5.978
61 1   11.961   13.131   15.181
62 1   12.896   12.783   16.104
63 1   27.146   33.137   30.332
64 1   26.602   32.642   31.471
65 1    6.246   12.421   29.420
66 1    7.517   12.792   29.659
67 1   16.684    1.030   14.283
68 1   16.579    2.299   13.835
69 1   37.845   48.026   17.513
70 1   38.186   46.712   17.278
71 1   12.653   24.243   30.496
72 1   13.451   25.203   29.974
73 1    7.179   29.210   14.885
74 1    6.529   28.066   14.590
75 1    5.725   23.014   46.339
76 1    5.778   22.207   47.442
77 1   35.935   29.325    7.237
78 1   36.988   30.163    7.070
79 1   29.521   26.032   85.191
80 1   28.816   24.870   85.413
81 1    1.311   11.229   26.900
82 1    1.038    9.967   26.532
83 1   13.701   27.947   35.133
84 1   14.064   26.770   35.644
85 1   41.358   42.488    9.464
86 1   40.056   42.747    9.727
87 1   38.855   43.078    5.989
88 1   39.184   43.159    4.669
89 1   33.369   43.011   24.524
90 1   32.180   42.728   23.985
91 1   30.008   25.328    2.968
92 1   30.138   24.901    4.232
93 1   41.774   24.106   25.238
94 1   43.063   23.891   25.080
95 1   40.628   46.171    9.951
96 1   41.079   -0.359    8.800
97 1   29.511   39.869   34.904
98 1   30.576   40.642   35.128
99 1   12.577   10.355   30.625
100 1   12.377   11.229   29.675
101 1    0.937   21.856   11.732
102 1    1.081   20.970   12.757
103 1    1.874   16.410   38.351
104 1    3.150   16.065   38.227
105 1   25.513    7.175   22.746
106 1   26.013    7.516   21.527
107 1   45.684   14.971   30.713
108 1   45.711   13.883   29.937
109 1   36.499   19.632    7.128
110 1   37.310   19.322    6.146
111 1   29.575   16.573   11.433
112 1   29.041   17.199   10.405
113 1   26.196   39.702    6.566
114 1   25.599   38.594    7.016
115 1   11.986   24.815   14.296
116 1   12.310   24.429   13.111
117 1   27.956   15.325   43.884
118 1   28.942   15.443   42.993
119 1   15.352   43.201    7.098
120 1   15.361   42.809    5.842
121 1   46.035   31.052   14.254
122 1   45.156   31.375   13.307
123 1   21.443   14.258   24.027
124 1   21.190   14.913   25.181
125 1   43.001   16.237   26.777
126 1   42.384   16.366   27.984
127 1   20.784   26.529   31.357
128 1   21.281   27.434   32.197
129 1    8.991    0.113   33.577
130 1   10.113   46.150   32.834
131 1   21.396    3.291    9.873
132 1   20.289    4.046    9.885
133 1   15.434   24.582   83.938
134 1   16.676   25.085   83.914
135 1   26.505   37.250   39.706
136 1   25.379   36.508   39.902
137 1   34.782   44.556   19.972
138 1   35.216   43.856   21.024
139 1    3.066   14.351   28.864
140 1    3.777   14.073   27.732
141 1   42.091    9.132   41.114
142 1   42.399   10.273   41.738
143 1   40.652   38.096   43.963
144 1   41.126   38.081   42.715
145 1   15.345    1.119    5.470
146 1   16.099    1.483    4.420
147 1   26.365   22.904   33.643
148 1   25.710   22.301   32.647
149 1   15.912   36.943   15.037
150 1   14.760   36.653   14.331
151 1   21.371   46.626   20.445
152 1   20.174    0.111   20.244
153 1    9.622   25.811   23.064
154 1    8.626   25.743   22.176
155 1    8.282    6.351   27.140
156 1    7.393    5.393   27.227
157 1   47.073   10.060   51.609
158 1   45.867    9.407   51.805
159 1   17.610   13.831   33.686
160 1   17.289   14.395   34.881
161 1   25.745    2.997   33.268
162 1   26.476    2.912   34.416
163 1   21.407   42.975   26.187
164 1   21.441   43.770   27.278
165 1   22.045   31.801   -0.869
166 1   21.137   32.331   -0.054
167 1   23.949    7.482    6.829
168 1   22.782    7.167    7.412
169 1    5.469    5.737    2.480
170 1    5.675    4.634    1.783
171 1    1.658    0.918   48.281
172 1    0.606    1.272   49.093
173 1   33.468   29.729    1.823
174 1   34.744   29.488    2.180
175 1   18.320   27.235    9.833
176 1   17.394   26.691   10.690
177 1   14.570   27.357    0.036
178 1   14.673   26.159    0.617
179 1   39.222    7.084    2.816
180 1   40.510    7.200    2.344
181 1   16.132    6.666   29.604
182 1   16.918    7.371   28.713
183 1   39.099   34.751   34.864
184 1   37.825   34.661   35.311
185 1   40.672   25.292   34.986
186 1   39.536   25.197   34.209
187 1    2.943   31.559   44.118
188 1    3.176   30.370   43.556
189 1    4.912   23.175   33.906
190 1    5.004   22.248   32.965
191 1   -1.270    7.483   20.072
192 1   45.759    6.893   20.584
193 1   23.151   32.475   31.302
194 1   22.201   31.781   30.719
195 1   20.121   41.307    0.850
196 1   20.751   40.418    1.651
197 1   22.359   36.656   15.000
198 1   21.168   37.309   15.019
199 1   46.043    5.084   32.539
200 1   45.417    5.120   33.709
201 1   18.649    4.744    2.997
202 1   19.256    4.950    4.174
203 1   39.374   17.095   16.878
204 1   38.783   17.192   15.695
205 1   40.165   20.466   39.843
206 1   41.310   20.519   39.207
207 1   41.480   23.146   14.584
208 1   40.746   23.547   15.622
209 1   19.329    5.947   30.500
210 1   18.879    5.164   31.470
211 1   33.722   15.478   46.408
212 1   34.732   15.674   47.341
213 1   17.430   27.372   34.918
214 1   17.997   28.222   35.775
215 1   33.516   18.527    5.574
216 1   33.042   18.883    6.814
217 1   30.774   29.451   25.387
218 1   30.624   29.689   26.674
219 1   29.593   25.662   44.593
220 1   30.791   25.012   44.468
221 1   13.024   10.069   40.084
222 1   11.759   10.359   40.344
223 1    3.321   18.155   16.382
224 1    3.223   17.403   15.285
225 1   21.323   17.388   20.749
226 1   22.047   17.250   21.906
227 1   42.374    5.311   26.488
228 1   43.301    4.344   26.238
229 1   20.513   40.884   12.729
230 1   20.865   40.517   11.464
231 1    4.895   30.654   48.977
232 1    5.564   31.009   47.926
233 1   44.672   10.485   12.230
234 1   43.703   11.258   12.678
235 1   17.361   22.423   42.165
236 1   16.637   21.822   43.077
237 1   30.297    9.404   21.648
238 1   31.557    8.838   21.720
239 1   40.586   19.054    7.194
240 1   39.865   19.091    8.371
241 1   33.583   13.699   13.904
242 1   33.983   14.702   13.040
243 1   24.633   12.674   24.611
244 1   25.276   13.442   23.728
245 1    5.154    7.929   14.105
246 1    6.413    7.567   14.462
247 1   13.313    8.977   15.552
248 1   13.322    7.967   16.464
249 1   22.079    0.818   37.034
250 1   22.478    1.914   36.367
251 1   33.678    4.504   39.782
252 1   32.932    3.555   40.405
253 1   35.109   40.667   13.161
254 1   34.982   41.653   12.308
255 1   32.563   45.484   47.638
256 1   32.588   44.336   46.965
257 1   12.263   17.582   39.519
258 1   13.022   17.493   38.437
259 1   11.496   31.112   43.156
260 1   10.879   30.809   42.030
261 1   16.900   18.652   37.365
262 1   17.054   19.523   38.359
263 1   20.664   32.594   41.534
264 1   21.862   32.208   41.089
265 1   20.622   43.780   22.429
266 1   21.924   43.358   22.540
267 1   40.671    8.589    7.057
268 1   41.295    9.607    6.451
269 1   17.645   45.196   44.971
270 1   18.487   44.237   45.467
271 1   33.440    9.488   27.191
272 1   32.629    8.595   27.789
273 1   12.782   12.889   22.846
274 1   13.428   11.754   23.173
275 1   23.136    7.148   20.146
276 1   22.104    6.619   20.889
277 1   26.102   41.327    0.894
278 1   26.485   42.603   86.521
279 1   -0.748   12.581   25.076
280 1   -0.157   13.775   25.226
281 1   31.376   32.723   35.749
282 1   30.149   33.047   35.287
283 1   38.612   14.801   21.916
284 1   37.919   15.718   21.237
285 1   24.309   15.884   15.860
286 1   24.895   16.677   14.944
287 1    5.134   31.270    9.551
288 1    4.526   30.218   10.168
289 1   23.754   23.775    4.327
290 1   22.881   24.424    3.516
291 1   42.995   42.890   29.934
292 1   41.654   42.774   30.064
293 1   42.199   23.452   19.764
294 1   43.252   24.273   20.012
295 1   44.804   37.638   26.094
296 1   44.802   36.801   27.146
297 1    9.839   20.416   37.080
298 1    9.837   19.309   36.313
299 1   22.372    6.387   85.137
300 1   23.651    6.454   85.480
301 1   36.022    7.723   42.745
302 1   34.733    7.414   42.865
303 1   43.602   40.821   14.213
304 1   44.740   41.163   14.809
305 1   35.553   23.335   29.520
306 1   36.305   22.323   29.137
307 1   36.989   31.686   34.518
308 1   36.817   30.465   35.160
309 1   17.436   13.104   38.860
310 1   16.781   12.710   39.968
311 1   42.617   36.324    5.258
312 1   41.962   35.608    6.173
313 1   32.019   21.193   29.588
314 1   33.099   20.933   30.358
315 1   25.401   33.233    9.407
316 1   26.554   33.846    9.023
317 1   19.002   40.420    5.293
318 1   18.761   39.525    6.202
319 1    3.115   38.975   29.281
320 1    3.425   38.894   27.968
321 1   11.813    9.742    6.098
322 1   10.508    9.735    6.226
323 1    4.356   39.849   37.219
324 1    5.506   40.096   37.823
325 1   41.049    0.743   29.112
326 1   40.668    1.386   30.242
327 1   13.473    9.839    9.885
328 1   14.002   10.245    8.722
329 1   32.085   14.283   22.785
330 1   33.464   14.462   22.974
331 1   31.424   20.409   52.196
332 1   32.581   19.803   51.937
333 1   27.852   15.449   28.092
334 1   28.177   14.946   26.894
335 1    1.782   35.200   28.595
336 1    1.890   34.866   29.887
337 1    5.725   -0.053   14.413
338 1    5.872    0.577   15.615
339 1   46.679   28.598   20.222
340 1    0.240   29.541   21.049
341 1   29.255   25.931    9.490
342 1   28.232   26.725    9.070
343 1   36.511   14.146   45.517
344 1   35.910   13.973   44.298
345 1   35.332    6.587   33.795
346 1   35.974    7.420   32.926
347 1   16.428   30.394   39.234
348 1   15.495   31.222   38.757
349 1   27.095   20.353    3.767
350 1   27.257   20.905    4.957
351 1   38.222    9.607   28.531
352 1   37.664    9.749   27.319
353 1    1.451   33.839   23.588
354 1    1.592   33.843   22.287
355 1   25.065   30.210   12.074
356 1   26.140   29.569   12.609
357 1   42.625    2.675    8.500
358 1   43.788    2.075    8.899
359 1   34.670   40.296   27.909
360 1   35.435   40.966   28.792
361 1    3.378   29.961   25.480
362 1    2.772   30.576   26.574
363 1   35.489   38.376   43.552
364 1   36.549   39.212   43.380
365 1    3.868   32.594    3.378
366 1    4.061   33.911    3.471
367 1   27.452   30.921   85.618
368 1   26.875   31.976   84.918
369 1   42.406   34.419   14.524
370 1   41.597   35.346   15.014
371 1   27.521    6.853    1.701
372 1   26.793    6.333    2.722
373 1   30.694   43.758   16.782
374 1   31.655   -1.260   16.746
375 1   43.262    0.859   39.915
376 1   43.037    1.952   40.656
377 1   23.735   11.275   14.338
378 1   23.002   12.353   14.024
379 1   22.157   37.065   18.595
380 1   21.950   35.836   18.191
381 1   14.815    8.269   24.672
382 1   14.000    7.399   25.295
383 1   41.714   43.979   18.917
384 1   41.989   44.859   19.898
385 1    7.205   37.283   41.020
386 1    7.748   37.204   39.810
387 1    3.096   11.831   39.857
388 1    1.989   11.036   39.654
389 1    2.668   18.212   35.769
390 1    1.291   18.228   35.660
391 1   16.997   37.005    3.937
392 1   17.031   38.169    3.289
393 1   -1.773    9.549    3.271
394 1   -0.586   10.101    3.553
395 1   30.517   11.560   27.349
396 1   30.627   11.223   26.036
397 1    2.817    3.266   39.249
398 1    2.371    2.040   39.664
399 1   13.822    5.407   40.991
400 1   13.196    5.277   39.826
401 1    3.526   42.068   39.706
402 1    3.576   42.831   38.612
403 1    8.578   13.744   40.801
404 1    7.340   13.344   41.051
405 1   35.262   24.857    6.387
406 1   34.247   25.650    6.672
407 1   23.120   27.971    0.204
408 1   22.504   28.550    1.245
409 1   46.031   42.444   11.975
410 1   45.153   41.628   11.378
411 1   40.410    6.156   36.243
412 1   41.054    7.305   36.592
413 1   14.727   22.412   27.078
414 1   14.073   21.472   27.787
415 1   35.766   19.618   37.243
416 1   36.601   19.263   38.271
417 1   42.994    4.941    6.325
418 1   41.666    4.971    6.430
419 1    4.001   11.953   43.322
420 1    2.742   12.298   43.028
421 1   14.062   28.129    9.000
422 1   12.690   27.920    8.768
423 1   36.730   -1.635   13.524
424 1   37.791   -0.888   13.305
425 1   34.269   44.415   40.611
426 1   35.200   44.547   41.583
427 1    2.498   24.583   18.678
428 1    3.154   25.645   18.142
429 1   27.438   37.334   27.147
430 1   28.207   36.399   26.650
431 1   29.016    5.507    6.939
432 1   29.345    4.583    6.045
433 1   27.970   12.075   86.043
434 1   26.779   12.005   85.421
435 1   31.551   12.931   41.677
436 1   31.362   12.715   40.350
437 1    4.345    5.621   30.232
438 1    3.216    6.101   29.761
439 1   34.374   24.349    1.343
440 1   33.630   25.401    1.830
441 1   21.129    1.350   17.147
442 1   22.389    1.120   17.477
443 1   33.786    7.772   18.432
444 1   33.899    7.640   17.115
445 1   28.195   27.719   26.318
446 1   27.981   26.685   25.540
447 1   36.127    4.093   11.650
448 1   35.203    3.997   10.699
449 1    6.608   21.356   11.575
450 1    7.353   20.315   11.456
451 1   28.143    8.760   26.877
452 1   27.385    9.583   27.687
453 1   10.076   37.440   42.480
454 1    9.733   36.144   42.762
455 1   30.734   21.482    9.448
456 1   31.525   22.339    8.866
457 1   24.372   18.810   84.558
458 1   25.281   18.996   85.582
459 1   34.476   11.775   21.003
460 1   33.344   11.977   20.359
461 1    2.254   36.634   43.139
462 1    2.407   37.415   42.082
463 1   13.880   26.539   79.895
464 1   14.813   26.089   79.010
465 1   36.281   10.086   16.970
466 1   37.576    9.852   17.175
467 1   10.702   23.029    6.150
468 1    9.735   22.669    6.966
469 1   20.283   37.175   41.586
470 1   19.470   36.200   42.039
471 1   24.395   16.519   10.415
472 1   23.996   16.450    9.152
473 1    8.278   21.815   16.225
474 1    8.359   22.617   17.317
475 1   43.225   36.707   17.981
476 1   44.389   37.442   17.980
477 1   22.804   22.216   12.882
478 1   23.789   23.119   13.181
479 1   40.954   22.718   46.765
480 1   40.316   23.477   47.659
481 1   13.217   15.759   30.774
482 1   13.473   16.525   31.801
483 1    6.213   34.522   44.283
484 1    6.272   33.633   43.307
485 1   10.496   44.350   24.767
486 1    9.388   43.892   25.284
487 1   45.534   35.530    7.459
488 1   45.793   36.666    6.829
489 1    0.065    8.237    6.351
490 1    0.161    6.908    6.097
491 1   10.118    5.672    9.141
492 1   11.090    6.574    8.857
493 1   37.510   -1.622   32.916
494 1   37.023   -0.573   33.613
495 1   14.541   36.966   31.386
496 1   15.017   36.395   30.308
497 1   16.481   23.380   31.518
498 1   15.733   23.027   32.543
499 1   20.699   13.138   18.210
500 1   20.598   13.093   19.589
501 1   26.896    0.709   16.924
502 1   27.541    0.488   15.802
503 1   32.236    9.561   39.833
504 1   33.374    8.866   39.678
505 1    6.755   26.487    7.465
506 1    5.680   25.991    8.129
507 1   27.008   16.188   20.818
508 1   26.246   16.423   19.716
509 1   24.619   28.185   41.323
510 1   23.724   27.399   41.824
511 1   38.733   24.083   12.275
512 1   38.513   25.211   12.941
513 1    9.545    2.861   27.032
514 1   10.106    3.690   26.110
515 1   17.913    1.271    0.377
516 1   18.991    2.046   86.181
517 1   26.477   29.824   43.948
518 1   26.984   30.246   42.712
519 1   35.811   27.221   21.680
520 1   35.455   25.904   21.630
521 1    6.730   24.198   42.179
522 1    6.957   22.861   42.228
523 1   38.525   44.713   46.419
524 1   38.136   43.533   46.982
525 1   11.177    2.206   21.838
526 1   12.059    3.178   22.085
527 1   27.022    9.170   36.963
528 1   27.983    9.225   37.936
529 1   19.702   32.306   14.412
530 1   18.391   32.689   14.386
531 1   12.763   46.168   36.377
532 1   14.048   -0.105   36.482
533 1   36.945   11.303    4.869
534 1   35.675   11.249    4.489
535 1   38.349   16.218   36.614
536 1   38.352   16.073   35.284
537 1   12.917   32.264   35.443
538 1   13.801   31.847   34.486
539 1   40.682   19.095   32.128
540 1   39.481   19.016   31.601
541 1   24.981   16.854   24.676
542 1   25.275   18.132   24.320
543 1   14.678   45.219   26.003
544 1   14.391   44.230   25.111
545 1   18.115   36.200   21.261
546 1   19.385   35.720   21.320
547 1    6.078   37.429   29.002
548 1    6.352   37.562   30.297
549 1   31.829   34.095   25.370
550 1   32.707   35.140   25.406
551 1   13.497   40.144   28.177
552 1   13.440   41.511   28.258
553 1   24.263   14.515    5.055
554 1   25.040   13.368    5.029
555 1   41.247   30.939   24.815
556 1   40.681   29.700   24.925
557 1   10.266   15.983   33.863
558 1   10.404   14.823   33.160
559 1   42.442   14.094   31.565
560 1   43.000   14.665   32.685
561 1   16.682   36.451   25.077
562 1   17.028   37.776   25.061
563 1   40.372   46.344   34.436
564 1   40.875   45.177   34.076
565 1   25.964    1.214   45.835
566 1   26.639    1.986   46.679
567 1   43.787   21.134   21.799
568 1   42.618   20.886   22.447
569 1   24.606   27.924   26.010
570 1   25.218   29.125   26.207
571 1   38.275   15.371   30.990
572 1   37.881   14.182   30.448
573 1   10.938   27.853   50.377
574 1   11.367   26.753   49.692
575 1    9.348   10.334   32.680
576 1    9.746    9.326   33.457
577 1   14.093   28.310    3.700
578 1   13.117   29.159    3.532
579 1   30.473   27.491   12.128
580 1   31.389   26.507   11.938
581 1   19.558    2.600   27.198
582 1   18.590    3.255   27.934
583 1   43.125   27.202   40.191
584 1   43.468   28.005   41.225
585 1   29.842   38.613   49.231
586 1   28.789   38.368   50.128
587 1   28.087   40.333   25.116
588 1   27.175   40.587   26.073
589 1   18.090   35.645   17.847
590 1   16.817   35.408   18.198
591 1   31.015   21.840   15.647
592 1   32.347   21.905   15.909
593 1   28.391   24.043   56.044
594 1   28.227   23.010   55.181
595 1   26.591   40.100   32.062
596 1   26.915   41.075   32.930
597 1   37.912   38.519   29.550
598 1   39.048   37.813   29.472
599 1    8.407   33.562   39.451
600 1    9.448   33.221   38.675
601 1   25.502   36.781   45.127
602 1   25.734   37.271   46.398
603 1   32.733   45.770   24.528
604 1   32.903   -0.128   25.851
605 1   44.551    7.116   23.951
606 1   43.869    8.062   24.647
607 1   40.693   40.260    3.776
608 1   40.557   39.669    4.962
609 1   27.416   42.188   14.857
610 1   27.356   41.090   15.647
611 1   11.902   19.848   81.746
612 1   12.116   19.329   80.523
613 1   46.789   35.914    3.359
614 1   45.589   35.590    2.826
615 1   25.576   46.282   49.211
616 1   24.391   45.971   48.716
617 1   14.871   23.353   21.894
618 1   15.951   22.863   22.570
619 1   23.495   35.409    1.204
620 1   23.268   35.852    2.484
621 1   31.475   36.092   19.892
622 1   30.460   35.444   20.481
623 1   12.410    2.311   12.657
624 1   12.553    1.078   13.144
625 1   31.200   24.566   26.929
626 1   32.127   25.522   26.667
627 1   39.388   28.582   34.062
628 1   40.535   28.745   33.326
629 1   41.080   23.273    4.766
630 1   41.891   23.487    5.799
631 1   25.358   30.251   15.524
632 1   24.212   29.724   15.900
633 1    7.971   32.814   29.746
634 1    6.688   33.249   29.462
635 1   23.292   37.807   31.104
636 1   23.924   38.034   29.970
637 1   26.119   24.006   39.041
638 1   26.784   23.727   37.948
639 1   20.506    2.746   30.739
640 1   21.556    2.846   31.576
641 1   35.794   41.719   37.223
642 1   35.087   41.152   38.240
643 1   21.696   12.016   27.959
644 1   22.282   11.171   27.121
645 1   46.549    2.882   45.209
646 1    0.271    4.167   45.427
647 1   20.741   36.127   24.638
648 1   20.229   35.169   25.483
649 1    4.504   27.725   46.365
650 1    3.861   26.740   47.036
651 1    9.568   39.708   36.411
652 1    9.435   39.593   35.052
653 1   22.397   43.195    6.046
654 1   21.862   42.135    6.603
655 1    8.572    3.339    3.623
656 1    8.657    3.207    4.942
657 1   29.631   12.285    3.075
658 1   30.691   12.760    2.503
659 1   43.227   40.469   42.384
660 1   42.710   40.935   43.484
661 1   38.761   42.658   26.249
662 1   39.308   42.448   25.004
663 1   20.221   37.905   44.923
664 1   19.341   38.808   44.347
665 1   28.409   38.366    1.329
666 1   27.259   37.687    1.276
667 1   10.896   23.292   34.197
668 1   11.400   22.090   33.782
669 1   26.983   34.504   22.797
670 1   26.483   33.302   23.046
671 1   24.346   12.780   28.946
672 1   24.207   14.090   29.180
673 1   22.958   41.709   44.604
674 1   22.959   40.652   43.790
675 1   28.957   30.807   22.208
676 1   30.129   31.266   22.702
677 1   18.361   24.981    1.409
678 1   18.601   26.227    1.889
679 1   15.019   42.127   20.266
680 1   16.298   42.356   20.080
681 1   28.555   29.886   34.613
682 1   28.054   28.693   34.186
683 1   30.681   41.315   42.149
684 1   29.778   42.347   42.071
685 1   15.759   20.256   20.363
686 1   14.925   19.700   19.447
687 1   31.043   35.486   38.030
688 1   30.168   36.501   38.054
689 1   45.883    3.854   40.263
690 1   -0.209    4.301   38.962
691 1   31.606   14.386   10.226
692 1   31.606   13.035   10.392
693 1   15.985   -1.654   47.604
694 1   15.600   -0.370   47.666
695 1   27.109   25.360   15.702
696 1   28.277   26.088   15.676
697 1   23.300    4.209   40.387
698 1   23.440    2.845   40.267
699 1   13.504    3.852   18.488
700 1   14.413    3.106   17.773
701 1   12.407   22.741    8.852
702 1   13.505   23.213    8.275
703 1   12.730   16.258    3.850
704 1   13.656   16.358    2.871
705 1    0.552   29.243   47.106
706 1    1.090   30.215   47.846
707 1    8.375   36.000   83.110
708 1    7.336   36.660   83.718
709 1   16.427    8.897   16.254
710 1   16.537    8.014   15.258
711 1   15.963    1.776   21.092
712 1   15.093   46.756   21.410
713 1   29.509    5.810   18.200
714 1   29.425    7.169   18.273
715 1   41.529   14.057   40.832
716 1   40.336   13.918   41.397
717 1   17.467   12.673   10.565
718 1   17.121   13.957   10.768
719 1   19.646   25.753   41.159
720 1   18.946   25.074   40.273
721 1   26.167   44.443   19.951
722 1   27.241   43.973   19.294
723 1   33.620   22.938    5.055
724 1   34.516   22.103    4.493
725 1   15.658   20.504    8.930
726 1   15.946   20.859   10.190
727 1    2.475   47.469   14.191
728 1    2.442   46.138   14.131
729 1    8.865   15.570   19.856
730 1   10.187   15.653   20.105
731 1   31.732   38.183   23.146
732 1   30.589   38.407   22.537
733 1   -0.558   20.848   38.729
734 1    0.565   20.358   39.318
735 1   31.417   25.856   40.126
736 1   30.862   24.961   39.269
737 1    8.357   40.653    2.603
738 1    8.122   41.075    3.842
739 1   39.862   31.259   29.972
740 1   40.151   31.597   28.717
741 1   10.808   35.965   15.808
742 1   11.503   35.136   16.586
743 1    9.447   27.024   28.723
744 1    9.366   26.312   29.868
745 1   43.865   41.421   37.494
746 1   44.204   40.364   38.258
747 1   23.978   26.023   10.467
748 1   22.710   26.257   10.088
749 1    5.772   20.120   39.258
750 1    5.397   20.204   37.983
751 1   37.986   19.965   20.330
752 1   39.107   19.844   19.565
753 1   33.296   46.027    7.050
754 1   34.243   -0.111    6.128
755 1   45.210   24.155   37.052
756 1   43.970   23.801   37.378
757 1   20.280   24.161   25.517
758 1   19.020   23.847   25.913
759 1   31.099   41.369   20.266
760 1   30.630   40.644   19.227
761 1    8.055   28.380   36.981
762 1    8.852   28.719   36.024
763 1   10.881    9.178   47.572
764 1   10.259    8.011   48.000
765 1   10.795   18.488   24.923
766 1   10.087   19.051   25.922
767 1    0.427   24.814   46.380
768 1    0.909   25.776   45.538
769 1    6.394   19.611   24.488
770 1    5.076   19.602   24.750
771 1   19.943   28.933   85.294
772 1   20.440   29.049   84.010
773 1   41.680   31.285   16.727
774 1   42.870   31.775   17.169
775 1   -1.343   32.596   39.169
776 1   -0.562   31.641   38.676
777 1   30.184   15.191   30.794
778 1   29.337   14.170   30.470
779 1    9.912   12.616    9.512
780 1   10.286   12.279   10.742
781 1    6.798   35.522    8.046
782 1    7.306   35.291    6.835
783 1   11.649   31.955   31.875
784 1   11.818   33.142   31.260
785 1   14.564   14.904   13.971
786 1   13.320   15.408   14.028
787 1   34.872   42.084   48.422
788 1   34.849   40.723   48.507
789 1    9.026   24.285   47.554
790 1    8.374   25.248   46.855
791 1    3.977   41.111   45.439
792 1    4.106   39.830   45.026
793 1   14.030   17.613    7.456
794 1   14.160   18.591    6.561
795 1   27.332    2.118   38.779
796 1   28.615    2.291   38.687
797 1    4.322   36.412   33.630
798 1    3.441   37.454   33.603
799 1    6.396    9.542   33.561
800 1    6.266   10.897   33.434
801 1   40.929   42.982   41.671
802 1   41.603   43.336   40.542
803 1    1.232    8.257   43.603
804 1    1.408    9.037   44.701
805 1   25.829   33.520   26.626
806 1   25.183   33.716   27.794
807 1   39.195   27.149    5.546
808 1   38.701   26.053    4.921
809 1   22.464   20.434    9.277
810 1   23.730   20.147    9.644
811 1   30.846   39.988   11.376
812 1   30.508   40.757   12.441
813 1    9.264   20.944   30.581
814 1    8.510   21.599   29.671
815 1   20.390   43.667    8.857
816 1   21.152   44.737    8.578
817 1    0.326   34.284   49.047
818 1    0.568   35.433   49.698
819 1   26.745   12.548   41.225
820 1   26.377   13.791   40.843
821 1   18.979    7.944   19.119
822 1   19.289    9.087   18.454
823 1   17.458   23.658    8.774
824 1   18.080   23.829    7.563
825 1   31.035   25.932   34.241
826 1   31.374   24.907   35.065
827 1    7.515   31.854   18.742
828 1    7.144   30.524   18.599
829 1   21.532    8.433   11.186
830 1   20.462    9.189   11.422
831 1    8.970   22.553    1.162
832 1    8.924   21.604    2.106
833 1   29.493   26.528   48.937
834 1   28.734   27.654   48.891
835 1   26.714   24.410    7.232
836 1   25.406   24.235    7.386
837 1   36.900    6.484   16.918
838 1   37.729    5.853   17.785
839 1   33.107   36.698   28.726
840 1   34.337   36.762   29.278
841 1   22.628   23.845   38.764
842 1   23.129   22.910   39.615
843 1   11.301   12.622    2.901
844 1   11.525   13.052    4.170
845 1    5.936    6.580   42.122
846 1    6.135    7.841   42.531
847 1   16.275   30.195   11.574
848 1   16.446   30.338   10.229
849 1   17.865   42.914   16.592
850 1   18.504   44.091   16.440
851 1   29.719    1.899   31.569
852 1   28.685    1.496   30.823
853 1    9.003   18.849    5.765
854 1    9.125   17.800    6.570
855 1   39.476   20.006   27.785
856 1   40.398   20.974   27.744
857 1   42.598    3.314   37.669
858 1   41.341    3.045   37.218
859 1   23.422   36.093   26.313
860 1   24.116   36.361   25.218
861 1   38.126   45.267   24.064
862 1   37.388   45.419   25.177
863 1   -0.310   38.144   13.924
864 1    0.639   38.169   13.008
865 1   14.038   14.188   25.541
866 1   14.519   15.215   24.804
867 1    5.836   22.468   26.119
868 1    7.060   22.912   25.677
869 1   24.830   30.216    8.005
870 1   23.734   30.097    8.788
871 1   42.543   39.389   19.847
872 1   41.323   39.892   19.593
873 1   19.461   28.248   27.827
874 1   20.386   27.338   27.811
875 1   25.651    3.551    5.441
876 1   25.540    3.969    6.695
877 1   33.235   15.534   37.042
878 1   33.373   14.339   36.481
879 1   19.090   31.675   27.086
880 1   18.458   31.083   28.128
881 1   37.782   10.195   21.135
882 1   37.437   10.993   22.134
883 1   14.274    0.690   33.369
884 1   15.351    1.458   33.243
885 1    0.173   27.156    5.603
886 1    0.980   27.281    4.538
887 1    9.225    6.472    5.493
888 1    9.222    6.625    4.139
889 1   32.099   23.651   32.423
890 1   31.021   23.927   31.636
891 1   24.873   45.016   35.686
892 1   24.276   44.593   36.782
893 1   15.263   16.564   20.805
894 1   16.472   15.997   20.947
895 1    9.994   36.031   47.701
896 1    8.802   36.263   47.093
897 1   13.509   28.825   15.040
898 1   14.636   28.082   14.949
899 1   44.905   42.094   22.878
900 1   44.565   40.804   23.149
901 1   42.282   29.923   20.342
902 1   41.475   28.796   20.567
903 1   19.585   11.718    3.923
904 1   18.420   11.016    3.885
905 1   19.783   20.677   24.678
906 1   20.393   20.705   23.480